   2   54
1 1
    -2.734937511847708     0.000000000000000    -0.000000000000002
    -0.000000000000000    -2.734937511847708    -0.000000000000002
     0.000000000000000     0.000000000000000    -0.834439795385673
1 2
     0.242014973039306     0.000000000000000     0.166264987451150
    -0.000000000000000     0.107639721043997    -0.000000000000002
    -0.166261605472175    -0.000000000000000     0.058411070273433
1 3
     0.242014973039306     0.000000000000000    -0.166264987451151
     0.000000000000000     0.107639721043997    -0.000000000000005
     0.166261605472175    -0.000000000000000     0.058411070273437
1 4
     0.107639721043997    -0.000000000000000    -0.000000000000001
    -0.000000000000000     0.242014973039306     0.166264987451155
    -0.000000000000000    -0.166261605472175     0.058411070273432
1 5
    -0.071891928785864    -0.074443077411060     0.061096418304508
    -0.074443077411060    -0.071891928785864     0.061096418304509
    -0.061096565179435    -0.061096565179435     0.050212038239191
1 6
    -0.071891928785864     0.074443077411060    -0.061096418304513
     0.074443077411060    -0.071891928785864     0.061096418304509
     0.061096565179435    -0.061096565179435     0.050212038239191
1 7
     0.107639721043997    -0.000000000000000     0.000000000000001
     0.000000000000000     0.242014973039306    -0.166264987451154
    -0.000000000000000     0.166261605472175     0.058411070273440
1 8
    -0.071891928785864     0.074443077411060     0.061096418304514
     0.074443077411060    -0.071891928785864    -0.061096418304505
    -0.061096565179435     0.061096565179435     0.050212038239199
1 9
    -0.071891928785864    -0.074443077411060    -0.061096418304512
    -0.074443077411060    -0.071891928785864    -0.061096418304510
     0.061096565179435     0.061096565179435     0.050212038239199
1 10
     0.012059674667633    -0.000000000000000     0.000000000000000
     0.000000000000000     0.012059674667633     0.000000000000003
     0.000000000000000    -0.000000000000000     0.061747534752208
1 11
    -0.007672017403121    -0.000000000000000    -0.012864389634379
    -0.000000000000000     0.009900233835320    -0.000000000000000
    -0.005950390449198    -0.000000000000000    -0.009225405143920
1 12
    -0.007672017403121    -0.000000000000000     0.012864389634380
     0.000000000000000     0.009900233835320     0.000000000000002
     0.005950390449198    -0.000000000000000    -0.009225405143915
1 13
     0.009900233835320    -0.000000000000000     0.000000000000004
     0.000000000000000    -0.007672017403121    -0.012864389634383
    -0.000000000000000    -0.005950390449198    -0.009225405143905
1 14
    -0.004969269367139    -0.004971330346596    -0.007541286791378
    -0.004971330346596    -0.004969269367139    -0.007541286791368
    -0.004062823192360    -0.004062823192360    -0.006154986719700
1 15
    -0.004969269367139     0.004971330346596     0.007541286791365
     0.004971330346596    -0.004969269367139    -0.007541286791370
     0.004062823192360    -0.004062823192360    -0.006154986719704
1 16
     0.009900233835320    -0.000000000000000    -0.000000000000005
    -0.000000000000000    -0.007672017403121     0.012864389634383
     0.000000000000000     0.005950390449198    -0.009225405143919
1 17
    -0.004969269367139     0.004971330346596    -0.007541286791368
     0.004971330346596    -0.004969269367139     0.007541286791374
    -0.004062823192360     0.004062823192360    -0.006154986719694
1 18
    -0.004969269367139    -0.004971330346596     0.007541286791367
    -0.004971330346596    -0.004969269367139     0.007541286791372
     0.004062823192360     0.004062823192360    -0.006154986719711
1 19
     0.012062153655729     0.000000000000000     0.000000000000005
    -0.000000000000000     0.012062153655729     0.000000000000006
    -0.000000000000000    -0.000000000000000     0.061747480137757
1 20
    -0.007673042976415     0.000000000000000     0.005937073638392
     0.000000000000000     0.009901780491442     0.000000000000007
     0.012879460301284    -0.000000000000000    -0.009226082711752
1 21
    -0.007673042976415     0.000000000000000    -0.005937073638385
    -0.000000000000000     0.009901780491442     0.000000000000007
    -0.012879460301284    -0.000000000000000    -0.009226082711748
1 22
     0.009901780491442     0.000000000000000    -0.000000000000003
     0.000000000000000    -0.007673042976415     0.005937073638396
    -0.000000000000000     0.012879460301284    -0.009226082711749
1 23
    -0.004970047246506    -0.004972108514219     0.004063443410872
    -0.004972108514219    -0.004970047246506     0.004063443410876
     0.007541865973409     0.007541865973409    -0.006155442198164
1 24
    -0.004970047246506     0.004972108514219    -0.004063443410873
     0.004972108514219    -0.004970047246506     0.004063443410873
    -0.007541865973409     0.007541865973409    -0.006155442198182
1 25
     0.009901780491442     0.000000000000000    -0.000000000000004
     0.000000000000000    -0.007673042976415    -0.005937073638381
    -0.000000000000000    -0.012879460301284    -0.009226082711741
1 26
    -0.004970047246506     0.004972108514219     0.004063443410870
     0.004972108514219    -0.004970047246506    -0.004063443410875
     0.007541865973409    -0.007541865973409    -0.006155442198175
1 27
    -0.004970047246506    -0.004972108514219    -0.004063443410870
    -0.004972108514219    -0.004970047246506    -0.004063443410874
    -0.007541865973409    -0.007541865973409    -0.006155442198171
1 28
     0.570468108210207     0.778597679242130     0.433135383900911
     0.778597679242130     0.570468108210207     0.433135383900913
     0.433167720977483     0.433167720977483    -0.081266978300192
1 29
    -0.062793024515072     0.000000000000000     0.000000000000006
    -0.000000000000000     0.000423135325370    -0.000172880525678
     0.000000000000000    -0.000173064901124     0.000002558674230
1 30
     0.570468108210207    -0.778597679242130    -0.433135383900917
    -0.778597679242130     0.570468108210207     0.433135383900913
    -0.433167720977483     0.433167720977483    -0.081266978300186
1 31
     0.000423135325370     0.000000000000000    -0.000172880525675
    -0.000000000000000    -0.062793024515072    -0.000000000000002
    -0.000173064901124     0.000000000000000     0.000002558674211
1 32
    -0.000845159494615    -0.000000000000000     0.000000000000001
     0.000000000000000    -0.000845159494615     0.000000000000002
    -0.000000000000000     0.000000000000000     0.000000000000010
1 33
     0.000423135325370     0.000000000000000     0.000172880525674
     0.000000000000000    -0.062793024515072    -0.000000000000005
     0.000173064901124     0.000000000000000     0.000002558674208
1 34
     0.570468108210207    -0.778597679242130     0.433135383900917
    -0.778597679242130     0.570468108210207    -0.433135383900915
     0.433167720977483    -0.433167720977483    -0.081266978300188
1 35
    -0.062793024515072     0.000000000000000    -0.000000000000006
    -0.000000000000000     0.000423135325370     0.000172880525671
    -0.000000000000000     0.000173064901124     0.000002558674217
1 36
     0.570468108210207     0.778597679242130    -0.433135383900910
     0.778597679242130     0.570468108210207    -0.433135383900914
    -0.433167720977483    -0.433167720977483    -0.081266978300182
1 37
     0.000010721709158    -0.000010721709037    -0.002240772398868
    -0.000010721709037     0.000010721709158    -0.002240772398868
    -0.002240927803182    -0.002240927803182    -0.004415954304947
1 38
    -0.000021443418355     0.000000000000000    -0.000000000000004
     0.000000000000000     0.000000000000150    -0.000010885765098
    -0.000000000000000    -0.000010955351926    -0.000021450610848
1 39
     0.000010721709158     0.000010721709037     0.002240772398864
     0.000010721709037     0.000010721709158    -0.002240772398868
     0.002240927803182    -0.002240927803182    -0.004415954304946
1 40
     0.000000000000150     0.000000000000000    -0.000010885765094
    -0.000000000000000    -0.000021443418355    -0.000000000000000
    -0.000010955351926     0.000000000000000    -0.000021450610842
1 41
    -0.000000000000295     0.000000000000000     0.000000000000001
     0.000000000000000    -0.000000000000295     0.000000000000003
    -0.000000000000000     0.000000000000000    -0.000000000000319
1 42
     0.000000000000150     0.000000000000000     0.000010885765101
     0.000000000000000    -0.000021443418355    -0.000000000000008
     0.000010955351926     0.000000000000000    -0.000021450610838
1 43
     0.000010721709158     0.000010721709037    -0.002240772398861
     0.000010721709037     0.000010721709158     0.002240772398865
    -0.002240927803182     0.002240927803182    -0.004415954304931
1 44
    -0.000021443418355    -0.000000000000000    -0.000000000000003
    -0.000000000000000     0.000000000000150     0.000010885765097
     0.000000000000000     0.000010955351926    -0.000021450610834
1 45
     0.000010721709158    -0.000010721709037     0.002240772398871
    -0.000010721709037     0.000010721709158     0.002240772398864
     0.002240927803182     0.002240927803182    -0.004415954304929
1 46
     0.045496537428695     0.071036919572828    -0.121130319227708
     0.071036919572828     0.045496537428695    -0.121130319227714
    -0.121120558875011    -0.121120558875011     0.185557726191145
1 47
    -0.004178137810083    -0.000000000000000     0.000000000000000
     0.000000000000000     0.000027981355392     0.000032875539145
     0.000000000000000     0.000032951024819     0.000019101735599
1 48
     0.045496537428695    -0.071036919572828     0.121130319227703
    -0.071036919572828     0.045496537428695    -0.121130319227716
     0.121120558875011    -0.121120558875011     0.185557726191153
1 49
     0.000027981355392    -0.000000000000000     0.000032875539154
     0.000000000000000    -0.004178137810083    -0.000000000000004
     0.000032951024819     0.000000000000000     0.000019101735635
1 50
    -0.000055962710809    -0.000000000000000    -0.000000000000001
     0.000000000000000    -0.000055962710809    -0.000000000000010
    -0.000000000000000     0.000000000000000     0.000000000000342
1 51
     0.000027981355392    -0.000000000000000    -0.000032875539156
    -0.000000000000000    -0.004178137810083     0.000000000000005
    -0.000032951024819     0.000000000000000     0.000019101735609
1 52
     0.045496537428695    -0.071036919572828    -0.121130319227713
    -0.071036919572828     0.045496537428695     0.121130319227711
    -0.121120558875011     0.121120558875011     0.185557726191150
1 53
    -0.004178137810083     0.000000000000000    -0.000000000000001
    -0.000000000000000     0.000027981355392    -0.000032875539158
     0.000000000000000    -0.000032951024819     0.000019101735613
1 54
     0.045496537428695     0.071036919572828     0.121130319227712
     0.071036919572828     0.045496537428695     0.121130319227709
     0.121120558875011     0.121120558875011     0.185557726191167
28 1
     0.570468108210207     0.778597679242130     0.433135383900913
     0.778597679242130     0.570468108210207     0.433135383900917
     0.433167720977483     0.433167720977483    -0.081266978300186
28 2
     0.570468108210207    -0.778597679242130    -0.433135383900914
    -0.778597679242130     0.570468108210207     0.433135383900910
    -0.433167720977483     0.433167720977483    -0.081266978300182
28 3
    -0.062793024515072    -0.000000000000000    -0.000000000000005
    -0.000000000000000     0.000423135325370    -0.000172880525674
     0.000000000000000    -0.000173064901124     0.000002558674208
28 4
     0.570468108210207    -0.778597679242130     0.433135383900913
    -0.778597679242130     0.570468108210207    -0.433135383900911
     0.433167720977483    -0.433167720977483    -0.081266978300192
28 5
     0.570468108210207     0.778597679242130    -0.433135383900915
     0.778597679242130     0.570468108210207    -0.433135383900917
    -0.433167720977483    -0.433167720977483    -0.081266978300188
28 6
    -0.062793024515072     0.000000000000000    -0.000000000000002
    -0.000000000000000     0.000423135325370     0.000172880525675
     0.000000000000000     0.000173064901124     0.000002558674211
28 7
     0.000423135325370     0.000000000000000    -0.000172880525678
    -0.000000000000000    -0.062793024515072    -0.000000000000006
    -0.000173064901124    -0.000000000000000     0.000002558674230
28 8
     0.000423135325370     0.000000000000000     0.000172880525671
    -0.000000000000000    -0.062793024515072     0.000000000000006
     0.000173064901124     0.000000000000000     0.000002558674217
28 9
    -0.000845159494615    -0.000000000000000     0.000000000000002
     0.000000000000000    -0.000845159494615    -0.000000000000001
     0.000000000000000     0.000000000000000     0.000000000000010
28 10
     0.045496537428695     0.071036919572828    -0.121130319227716
     0.071036919572828     0.045496537428695    -0.121130319227703
    -0.121120558875011    -0.121120558875011     0.185557726191153
28 11
     0.045496537428695    -0.071036919572828     0.121130319227709
    -0.071036919572828     0.045496537428695    -0.121130319227712
     0.121120558875011    -0.121120558875011     0.185557726191167
28 12
    -0.004178137810083     0.000000000000000     0.000000000000005
     0.000000000000000     0.000027981355392     0.000032875539156
     0.000000000000000     0.000032951024819     0.000019101735609
28 13
     0.045496537428695    -0.071036919572828    -0.121130319227714
    -0.071036919572828     0.045496537428695     0.121130319227708
    -0.121120558875011     0.121120558875011     0.185557726191145
28 14
     0.045496537428695     0.071036919572828     0.121130319227711
     0.071036919572828     0.045496537428695     0.121130319227713
     0.121120558875011     0.121120558875011     0.185557726191150
28 15
    -0.004178137810083    -0.000000000000000    -0.000000000000004
     0.000000000000000     0.000027981355392    -0.000032875539154
     0.000000000000000    -0.000032951024819     0.000019101735635
28 16
     0.000027981355392    -0.000000000000000     0.000032875539145
     0.000000000000000    -0.004178137810083    -0.000000000000000
     0.000032951024819    -0.000000000000000     0.000019101735599
28 17
     0.000027981355392     0.000000000000000    -0.000032875539158
    -0.000000000000000    -0.004178137810083     0.000000000000001
    -0.000032951024819    -0.000000000000000     0.000019101735613
28 18
    -0.000055962710809    -0.000000000000000    -0.000000000000010
     0.000000000000000    -0.000055962710809     0.000000000000001
     0.000000000000000     0.000000000000000     0.000000000000342
28 19
     0.000010721709158    -0.000010721709037    -0.002240772398868
    -0.000010721709037     0.000010721709158    -0.002240772398864
    -0.002240927803182    -0.002240927803182    -0.004415954304946
28 20
     0.000010721709158     0.000010721709037     0.002240772398864
     0.000010721709037     0.000010721709158    -0.002240772398871
     0.002240927803182    -0.002240927803182    -0.004415954304929
28 21
    -0.000021443418355    -0.000000000000000    -0.000000000000008
    -0.000000000000000     0.000000000000150    -0.000010885765101
     0.000000000000000    -0.000010955351926    -0.000021450610838
28 22
     0.000010721709158     0.000010721709037    -0.002240772398868
     0.000010721709037     0.000010721709158     0.002240772398868
    -0.002240927803182     0.002240927803182    -0.004415954304947
28 23
     0.000010721709158    -0.000010721709037     0.002240772398865
    -0.000010721709037     0.000010721709158     0.002240772398861
     0.002240927803182     0.002240927803182    -0.004415954304931
28 24
    -0.000021443418355     0.000000000000000    -0.000000000000000
    -0.000000000000000     0.000000000000150     0.000010885765094
     0.000000000000000     0.000010955351926    -0.000021450610842
28 25
     0.000000000000150    -0.000000000000000    -0.000010885765098
    -0.000000000000000    -0.000021443418355     0.000000000000004
    -0.000010955351926     0.000000000000000    -0.000021450610848
28 26
     0.000000000000150     0.000000000000000     0.000010885765097
     0.000000000000000    -0.000021443418355     0.000000000000003
     0.000010955351926    -0.000000000000000    -0.000021450610834
28 27
    -0.000000000000295    -0.000000000000000     0.000000000000003
    -0.000000000000000    -0.000000000000295    -0.000000000000001
     0.000000000000000     0.000000000000000    -0.000000000000319
28 28
    -2.734937511847708     0.000000000000000    -0.000000000000002
    -0.000000000000000    -2.734937511847708     0.000000000000002
     0.000000000000000    -0.000000000000000    -0.834439795385673
28 29
     0.242014973039306    -0.000000000000000    -0.166264987451154
     0.000000000000000     0.107639721043997    -0.000000000000001
     0.166261605472175     0.000000000000000     0.058411070273440
28 30
     0.242014973039306     0.000000000000000     0.166264987451155
     0.000000000000000     0.107639721043997     0.000000000000001
    -0.166261605472175     0.000000000000000     0.058411070273432
28 31
     0.107639721043997     0.000000000000000    -0.000000000000002
    -0.000000000000000     0.242014973039306    -0.166264987451150
    -0.000000000000000     0.166261605472175     0.058411070273433
28 32
    -0.071891928785864    -0.074443077411060    -0.061096418304505
    -0.074443077411060    -0.071891928785864    -0.061096418304514
     0.061096565179435     0.061096565179435     0.050212038239199
28 33
    -0.071891928785864     0.074443077411060     0.061096418304509
     0.074443077411060    -0.071891928785864    -0.061096418304508
    -0.061096565179435     0.061096565179435     0.050212038239191
28 34
     0.107639721043997    -0.000000000000000    -0.000000000000005
    -0.000000000000000     0.242014973039306     0.166264987451151
    -0.000000000000000    -0.166261605472175     0.058411070273437
28 35
    -0.071891928785864     0.074443077411060    -0.061096418304510
     0.074443077411060    -0.071891928785864     0.061096418304512
     0.061096565179435    -0.061096565179435     0.050212038239199
28 36
    -0.071891928785864    -0.074443077411060     0.061096418304509
    -0.074443077411060    -0.071891928785864     0.061096418304513
    -0.061096565179435    -0.061096565179435     0.050212038239191
28 37
     0.012062153655729     0.000000000000000     0.000000000000006
    -0.000000000000000     0.012062153655729    -0.000000000000005
    -0.000000000000000     0.000000000000000     0.061747480137757
28 38
    -0.007673042976415    -0.000000000000000    -0.005937073638381
    -0.000000000000000     0.009901780491442     0.000000000000004
    -0.012879460301284     0.000000000000000    -0.009226082711741
28 39
    -0.007673042976415    -0.000000000000000     0.005937073638396
    -0.000000000000000     0.009901780491442     0.000000000000003
     0.012879460301284     0.000000000000000    -0.009226082711749
28 40
     0.009901780491442    -0.000000000000000     0.000000000000007
    -0.000000000000000    -0.007673042976415    -0.005937073638392
    -0.000000000000000    -0.012879460301284    -0.009226082711752
28 41
    -0.004970047246506    -0.004972108514219    -0.004063443410875
    -0.004972108514219    -0.004970047246506    -0.004063443410870
    -0.007541865973409    -0.007541865973409    -0.006155442198175
28 42
    -0.004970047246506     0.004972108514219     0.004063443410876
     0.004972108514219    -0.004970047246506    -0.004063443410872
     0.007541865973409    -0.007541865973409    -0.006155442198164
28 43
     0.009901780491442     0.000000000000000     0.000000000000007
    -0.000000000000000    -0.007673042976415     0.005937073638385
    -0.000000000000000     0.012879460301284    -0.009226082711748
28 44
    -0.004970047246506     0.004972108514219    -0.004063443410874
     0.004972108514219    -0.004970047246506     0.004063443410870
    -0.007541865973409     0.007541865973409    -0.006155442198171
28 45
    -0.004970047246506    -0.004972108514219     0.004063443410873
    -0.004972108514219    -0.004970047246506     0.004063443410873
     0.007541865973409     0.007541865973409    -0.006155442198182
28 46
     0.012059674667633    -0.000000000000000     0.000000000000003
     0.000000000000000     0.012059674667633    -0.000000000000000
    -0.000000000000000    -0.000000000000000     0.061747534752208
28 47
    -0.007672017403121     0.000000000000000     0.012864389634383
     0.000000000000000     0.009900233835320     0.000000000000005
     0.005950390449198    -0.000000000000000    -0.009225405143919
28 48
    -0.007672017403121    -0.000000000000000    -0.012864389634383
     0.000000000000000     0.009900233835320    -0.000000000000004
    -0.005950390449198     0.000000000000000    -0.009225405143905
28 49
     0.009900233835320     0.000000000000000    -0.000000000000000
     0.000000000000000    -0.007672017403121     0.012864389634379
    -0.000000000000000     0.005950390449198    -0.009225405143920
28 50
    -0.004969269367139    -0.004971330346596     0.007541286791374
    -0.004971330346596    -0.004969269367139     0.007541286791368
     0.004062823192360     0.004062823192360    -0.006154986719694
28 51
    -0.004969269367139     0.004971330346596    -0.007541286791368
     0.004971330346596    -0.004969269367139     0.007541286791378
    -0.004062823192360     0.004062823192360    -0.006154986719700
28 52
     0.009900233835320    -0.000000000000000     0.000000000000002
     0.000000000000000    -0.007672017403121    -0.012864389634380
    -0.000000000000000    -0.005950390449198    -0.009225405143915
28 53
    -0.004969269367139     0.004971330346596     0.007541286791372
     0.004971330346596    -0.004969269367139    -0.007541286791367
     0.004062823192360    -0.004062823192360    -0.006154986719711
28 54
    -0.004969269367139    -0.004971330346596    -0.007541286791370
    -0.004971330346596    -0.004969269367139    -0.007541286791365
    -0.004062823192360    -0.004062823192360    -0.006154986719704