phonopy:
  version: "4.2.0"
  frequency_unit_conversion_factor: 15.633302
  symmetry_tolerance: 1.00000e-05

physical_unit:
  atomic_mass: "AMU"
  length: "angstrom"
  force: "eV/angstrom"
  force_constants: "eV/angstrom^2"

space_group:
  type: "P4/nmm"
  number: 129
  Hall_symbol: "P 4ab 2ab -1ab"

primitive_matrix:
- [  1.000000000000000,  0.000000000000000,  0.000000000000000 ]
- [  0.000000000000000,  1.000000000000000,  0.000000000000000 ]
- [  0.000000000000000,  0.000000000000000,  1.000000000000000 ]

supercell_matrix:
- [   3,   0,   0 ]
- [   0,   3,   0 ]
- [   0,   0,   3 ]

primitive_cell:
  lattice:
  - [     3.600000000000000,     0.000000000000000,     0.000000000000000 ] # a
  - [     0.000000000000000,     3.600000000000000,     0.000000000000000 ] # b
  - [     0.000000000000000,     0.000000000000000,     4.200000000000000 ] # c
  points:
  - symbol: Cu # 1
    coordinates: [  0.000000000000000,  0.000000000000000,  0.000000000000000 ]
    mass: 63.546000
  - symbol: Cu # 2
    coordinates: [  0.500000000000000,  0.500000000000000,  0.350000000000000 ]
    mass: 63.546000
  reciprocal_lattice: # without 2pi
  - [     0.277777777777778,     0.000000000000000,     0.000000000000000 ] # a*
  - [     0.000000000000000,     0.277777777777778,     0.000000000000000 ] # b*
  - [     0.000000000000000,     0.000000000000000,     0.238095238095238 ] # c*

unit_cell:
  lattice:
  - [     3.600000000000000,     0.000000000000000,     0.000000000000000 ] # a
  - [     0.000000000000000,     3.600000000000000,     0.000000000000000 ] # b
  - [     0.000000000000000,     0.000000000000000,     4.200000000000000 ] # c
  points:
  - symbol: Cu # 1
    coordinates: [  0.000000000000000,  0.000000000000000,  0.000000000000000 ]
    mass: 63.546000
    reduced_to: 1
  - symbol: Cu # 2
    coordinates: [  0.500000000000000,  0.500000000000000,  0.350000000000000 ]
    mass: 63.546000
    reduced_to: 2

supercell:
  lattice:
  - [    10.800000000000001,     0.000000000000000,     0.000000000000000 ] # a
  - [     0.000000000000000,    10.800000000000001,     0.000000000000000 ] # b
  - [     0.000000000000000,     0.000000000000000,    12.600000000000001 ] # c
  points:
  - symbol: Cu # 1
    coordinates: [  0.000000000000000,  0.000000000000000,  0.000000000000000 ]
    mass: 63.546000
    reduced_to: 1
  - symbol: Cu # 2
    coordinates: [  0.333333333333333,  0.000000000000000,  0.000000000000000 ]
    mass: 63.546000
    reduced_to: 1
  - symbol: Cu # 3
    coordinates: [  0.666666666666667,  0.000000000000000,  0.000000000000000 ]
    mass: 63.546000
    reduced_to: 1
  - symbol: Cu # 4
    coordinates: [  0.000000000000000,  0.333333333333333,  0.000000000000000 ]
    mass: 63.546000
    reduced_to: 1
  - symbol: Cu # 5
    coordinates: [  0.333333333333333,  0.333333333333333,  0.000000000000000 ]
    mass: 63.546000
    reduced_to: 1
  - symbol: Cu # 6
    coordinates: [  0.666666666666667,  0.333333333333333,  0.000000000000000 ]
    mass: 63.546000
    reduced_to: 1
  - symbol: Cu # 7
    coordinates: [  0.000000000000000,  0.666666666666667,  0.000000000000000 ]
    mass: 63.546000
    reduced_to: 1
  - symbol: Cu # 8
    coordinates: [  0.333333333333333,  0.666666666666667,  0.000000000000000 ]
    mass: 63.546000
    reduced_to: 1
  - symbol: Cu # 9
    coordinates: [  0.666666666666667,  0.666666666666667,  0.000000000000000 ]
    mass: 63.546000
    reduced_to: 1
  - symbol: Cu # 10
    coordinates: [  0.000000000000000,  0.000000000000000,  0.333333333333333 ]
    mass: 63.546000
    reduced_to: 1
  - symbol: Cu # 11
    coordinates: [  0.333333333333333,  0.000000000000000,  0.333333333333333 ]
    mass: 63.546000
    reduced_to: 1
  - symbol: Cu # 12
    coordinates: [  0.666666666666667,  0.000000000000000,  0.333333333333333 ]
    mass: 63.546000
    reduced_to: 1
  - symbol: Cu # 13
    coordinates: [  0.000000000000000,  0.333333333333333,  0.333333333333333 ]
    mass: 63.546000
    reduced_to: 1
  - symbol: Cu # 14
    coordinates: [  0.333333333333333,  0.333333333333333,  0.333333333333333 ]
    mass: 63.546000
    reduced_to: 1
  - symbol: Cu # 15
    coordinates: [  0.666666666666667,  0.333333333333333,  0.333333333333333 ]
    mass: 63.546000
    reduced_to: 1
  - symbol: Cu # 16
    coordinates: [  0.000000000000000,  0.666666666666667,  0.333333333333333 ]
    mass: 63.546000
    reduced_to: 1
  - symbol: Cu # 17
    coordinates: [  0.333333333333333,  0.666666666666667,  0.333333333333333 ]
    mass: 63.546000
    reduced_to: 1
  - symbol: Cu # 18
    coordinates: [  0.666666666666667,  0.666666666666667,  0.333333333333333 ]
    mass: 63.546000
    reduced_to: 1
  - symbol: Cu # 19
    coordinates: [  0.000000000000000,  0.000000000000000,  0.666666666666667 ]
    mass: 63.546000
    reduced_to: 1
  - symbol: Cu # 20
    coordinates: [  0.333333333333333,  0.000000000000000,  0.666666666666667 ]
    mass: 63.546000
    reduced_to: 1
  - symbol: Cu # 21
    coordinates: [  0.666666666666667,  0.000000000000000,  0.666666666666667 ]
    mass: 63.546000
    reduced_to: 1
  - symbol: Cu # 22
    coordinates: [  0.000000000000000,  0.333333333333333,  0.666666666666667 ]
    mass: 63.546000
    reduced_to: 1
  - symbol: Cu # 23
    coordinates: [  0.333333333333333,  0.333333333333333,  0.666666666666667 ]
    mass: 63.546000
    reduced_to: 1
  - symbol: Cu # 24
    coordinates: [  0.666666666666667,  0.333333333333333,  0.666666666666667 ]
    mass: 63.546000
    reduced_to: 1
  - symbol: Cu # 25
    coordinates: [  0.000000000000000,  0.666666666666667,  0.666666666666667 ]
    mass: 63.546000
    reduced_to: 1
  - symbol: Cu # 26
    coordinates: [  0.333333333333333,  0.666666666666667,  0.666666666666667 ]
    mass: 63.546000
    reduced_to: 1
  - symbol: Cu # 27
    coordinates: [  0.666666666666667,  0.666666666666667,  0.666666666666667 ]
    mass: 63.546000
    reduced_to: 1
  - symbol: Cu # 28
    coordinates: [  0.166666666666667,  0.166666666666667,  0.116666666666667 ]
    mass: 63.546000
    reduced_to: 28
  - symbol: Cu # 29
    coordinates: [  0.500000000000000,  0.166666666666667,  0.116666666666667 ]
    mass: 63.546000
    reduced_to: 28
  - symbol: Cu # 30
    coordinates: [  0.833333333333333,  0.166666666666667,  0.116666666666667 ]
    mass: 63.546000
    reduced_to: 28
  - symbol: Cu # 31
    coordinates: [  0.166666666666667,  0.500000000000000,  0.116666666666667 ]
    mass: 63.546000
    reduced_to: 28
  - symbol: Cu # 32
    coordinates: [  0.500000000000000,  0.500000000000000,  0.116666666666667 ]
    mass: 63.546000
    reduced_to: 28
  - symbol: Cu # 33
    coordinates: [  0.833333333333333,  0.500000000000000,  0.116666666666667 ]
    mass: 63.546000
    reduced_to: 28
  - symbol: Cu # 34
    coordinates: [  0.166666666666667,  0.833333333333333,  0.116666666666667 ]
    mass: 63.546000
    reduced_to: 28
  - symbol: Cu # 35
    coordinates: [  0.500000000000000,  0.833333333333333,  0.116666666666667 ]
    mass: 63.546000
    reduced_to: 28
  - symbol: Cu # 36
    coordinates: [  0.833333333333333,  0.833333333333333,  0.116666666666667 ]
    mass: 63.546000
    reduced_to: 28
  - symbol: Cu # 37
    coordinates: [  0.166666666666667,  0.166666666666667,  0.450000000000000 ]
    mass: 63.546000
    reduced_to: 28
  - symbol: Cu # 38
    coordinates: [  0.500000000000000,  0.166666666666667,  0.450000000000000 ]
    mass: 63.546000
    reduced_to: 28
  - symbol: Cu # 39
    coordinates: [  0.833333333333333,  0.166666666666667,  0.450000000000000 ]
    mass: 63.546000
    reduced_to: 28
  - symbol: Cu # 40
    coordinates: [  0.166666666666667,  0.500000000000000,  0.450000000000000 ]
    mass: 63.546000
    reduced_to: 28
  - symbol: Cu # 41
    coordinates: [  0.500000000000000,  0.500000000000000,  0.450000000000000 ]
    mass: 63.546000
    reduced_to: 28
  - symbol: Cu # 42
    coordinates: [  0.833333333333333,  0.500000000000000,  0.450000000000000 ]
    mass: 63.546000
    reduced_to: 28
  - symbol: Cu # 43
    coordinates: [  0.166666666666667,  0.833333333333333,  0.450000000000000 ]
    mass: 63.546000
    reduced_to: 28
  - symbol: Cu # 44
    coordinates: [  0.500000000000000,  0.833333333333333,  0.450000000000000 ]
    mass: 63.546000
    reduced_to: 28
  - symbol: Cu # 45
    coordinates: [  0.833333333333333,  0.833333333333333,  0.450000000000000 ]
    mass: 63.546000
    reduced_to: 28
  - symbol: Cu # 46
    coordinates: [  0.166666666666667,  0.166666666666667,  0.783333333333333 ]
    mass: 63.546000
    reduced_to: 28
  - symbol: Cu # 47
    coordinates: [  0.500000000000000,  0.166666666666667,  0.783333333333333 ]
    mass: 63.546000
    reduced_to: 28
  - symbol: Cu # 48
    coordinates: [  0.833333333333333,  0.166666666666667,  0.783333333333333 ]
    mass: 63.546000
    reduced_to: 28
  - symbol: Cu # 49
    coordinates: [  0.166666666666667,  0.500000000000000,  0.783333333333333 ]
    mass: 63.546000
    reduced_to: 28
  - symbol: Cu # 50
    coordinates: [  0.500000000000000,  0.500000000000000,  0.783333333333333 ]
    mass: 63.546000
    reduced_to: 28
  - symbol: Cu # 51
    coordinates: [  0.833333333333333,  0.500000000000000,  0.783333333333333 ]
    mass: 63.546000
    reduced_to: 28
  - symbol: Cu # 52
    coordinates: [  0.166666666666667,  0.833333333333333,  0.783333333333333 ]
    mass: 63.546000
    reduced_to: 28
  - symbol: Cu # 53
    coordinates: [  0.500000000000000,  0.833333333333333,  0.783333333333333 ]
    mass: 63.546000
    reduced_to: 28
  - symbol: Cu # 54
    coordinates: [  0.833333333333333,  0.833333333333333,  0.783333333333333 ]
    mass: 63.546000
    reduced_to: 28

displacements:
- atom:    1
  displacement:
    [   0.0065079137345597,  0.0000000000000000,  0.0075925660236530 ]
  forces:
  - [   0.0177992802437177,  0.0000000000000012,  1.2726427064583887 ]
  - [  -0.0003074008741038,  0.0000000000000006,  1.2648896833610854 ]
  - [  -0.0028114986418550,  0.0000000000000026,  1.2670563217165121 ]
  - [  -0.0007097949791350,  0.0012751004749335,  1.2659760274916623 ]
  - [   0.0009382286726692,  0.0009550135100801,  1.2656390215704321 ]
  - [   0.0000062343569357, -0.0000226630822965,  1.2664413934936138 ]
  - [  -0.0007097949791325, -0.0012751004749340,  1.2659760274916627 ]
  - [   0.0009382286726681, -0.0009550135100804,  1.2656390215704321 ]
  - [   0.0000062343569355,  0.0000226630822951,  1.2664413934936147 ]
  - [  -0.0000786167295348,  0.0000000000000003,  1.2659503717642606 ]
  - [   0.0000917299112541,  0.0000000000000005,  1.2665733614397625 ]
  - [   0.0000051104251328,  0.0000000000000022,  1.2664090877894825 ]
  - [  -0.0000649727867540,  0.0000441714334616,  1.2664922351536838 ]
  - [   0.0000636294182696,  0.0000636443447055,  1.2665197599914098 ]
  - [   0.0000016291074018, -0.0000016430148601,  1.2664207252082187 ]
  - [  -0.0000649727867522, -0.0000441714334615,  1.2664922351536847 ]
  - [   0.0000636294182681, -0.0000636443447061,  1.2665197599914115 ]
  - [   0.0000016291074020,  0.0000016430148581,  1.2664207252082174 ]
  - [  -0.0000773178616611,  0.0000000000000011,  1.2659589719115896 ]
  - [  -0.0000479241320289,  0.0000000000000013,  1.2664547423205359 ]
  - [   0.0001496504767554, -0.0000000000000002,  1.2665350087765599 ]
  - [  -0.0000632925471690, -0.0000981264117626,  1.2664941152088776 ]
  - [  -0.0000249554928807, -0.0000249426859263,  1.2664436025158825 ]
  - [   0.0000884605332043, -0.0000884725430623,  1.2664955244777703 ]
  - [  -0.0000632925471704,  0.0000981264117616,  1.2664941152088776 ]
  - [  -0.0000249554928805,  0.0000249426859262,  1.2664436025158821 ]
  - [   0.0000884605332039,  0.0000884725430622,  1.2664955244777703 ]
  - [  -0.0069920286026477, -0.0083704649500550, -1.2685868389891468 ]
  - [   0.0004104812661250,  0.0000030274050901, -1.2664218951941015 ]
  - [  -0.0004616619314017,  0.0018096966028191, -1.2629754830975843 ]
  - [  -0.0000018941490614,  0.0000000000000014, -1.2664225298712795 ]
  - [   0.0000055248645796,  0.0000000000000005, -1.2664232683216274 ]
  - [  -0.0000036451781353,  0.0000000000000001, -1.2664247740552230 ]
  - [  -0.0069920286026484,  0.0083704649500534, -1.2685868389891473 ]
  - [   0.0004104812661235, -0.0000030274050912, -1.2664218951941011 ]
  - [  -0.0004616619314000, -0.0018096966028197, -1.2629754830975830 ]
  - [   0.0000171531820055,  0.0000173067682227, -1.2663747989802683 ]
  - [   0.0000001492271725,  0.0000000942477838, -1.2664231091317946 ]
  - [  -0.0000173024091781,  0.0000171575410568, -1.2664042906195452 ]
  - [   0.0000000898887326,  0.0000000000000015, -1.2664230405966956 ]
  - [   0.0000000000000055,  0.0000000000000016, -1.2664232797799395 ]
  - [  -0.0000000898887379,  0.0000000000000000, -1.2664231838279305 ]
  - [   0.0000171531820059, -0.0000173067682257, -1.2663747989802709 ]
  - [   0.0000001492271705, -0.0000000942477850, -1.2664231091317946 ]
  - [  -0.0000173024091766, -0.0000171575410577, -1.2664042906195443 ]
  - [   0.0006226078591432,  0.0004580246309040, -1.2670467014792355 ]
  - [   0.0000269340202168, -0.0000001253635651, -1.2664235904510159 ]
  - [  -0.0012029980715063,  0.0013645142440410, -1.2685957692798950 ]
  - [  -0.0000004514157910, -0.0000000000000008, -1.2664235914684558 ]
  - [   0.0000003608666794,  0.0000000000000002, -1.2664232811889005 ]
  - [   0.0000000905491104,  0.0000000000000008, -1.2664231622060578 ]
  - [   0.0006226078591442, -0.0004580246309027, -1.2670467014792350 ]
  - [   0.0000269340202187,  0.0000001253635642, -1.2664235904510146 ]
  - [  -0.0012029980715092, -0.0013645142440421, -1.2685957692798933 ]
- atom:    1
  displacement:
    [  -0.0065079137345597,  0.0000000000000000, -0.0075925660236530 ]
  forces:
  - [  -0.0177981945493146,  0.0000000000000012,  1.2599716279799305 ]
  - [   0.0003178430209524, -0.0000000000000008,  1.2679406809158587 ]
  - [   0.0028633077311351,  0.0000000000000008,  1.2657791664896463 ]
  - [   0.0006912250587982, -0.0012495271530835,  1.2668630659579616 ]
  - [  -0.0009252636438326, -0.0009416841865433,  1.2671967184410908 ]
  - [  -0.0000017392095608,  0.0000185157247861,  1.2664086494850069 ]
  - [   0.0006912250587999,  0.0012495271530834,  1.2668630659579629 ]
  - [  -0.0009252636438330,  0.0009416841865431,  1.2671967184410917 ]
  - [  -0.0000017392095612, -0.0000185157247862,  1.2664086494850095 ]
  - [   0.0000783499152729,  0.0000000000000008,  1.2668880162330685 ]
  - [  -0.0000983853530259,  0.0000000000000008,  1.2662659517701162 ]
  - [  -0.0000044896203055,  0.0000000000000025,  1.2664365594717895 ]
  - [   0.0000638869487507, -0.0000462858865257,  1.2663520261567527 ]
  - [  -0.0000627441875358, -0.0000627561936243,  1.2663281396175501 ]
  - [  -0.0000013555922535,  0.0000013684029766,  1.2664254170099025 ]
  - [   0.0000638869487521,  0.0000462858865257,  1.2663520261567545 ]
  - [  -0.0000627441875372,  0.0000627561936239,  1.2663281396175519 ]
  - [  -0.0000013555922532, -0.0000013684029786,  1.2664254170099007 ]
  - [   0.0000796810492279,  0.0000000000000005,  1.2668966155510697 ]
  - [   0.0000476800609686,  0.0000000000000014,  1.2663920389687640 ]
  - [  -0.0001456957233304,  0.0000000000000004,  1.2663177535724905 ]
  - [   0.0000655873193445,  0.0000975510024422,  1.2663538959182827 ]
  - [   0.0000248794050766,  0.0000248654934424,  1.2664030203916603 ]
  - [  -0.0000907529197009,  0.0000907678494641,  1.2663491641968148 ]
  - [   0.0000655873193434, -0.0000975510024424,  1.2663538959182841 ]
  - [   0.0000248794050767, -0.0000248654934424,  1.2664030203916594 ]
  - [  -0.0000907529197010, -0.0000907678494639,  1.2663491641968152 ]
  - [   0.0070107242168528,  0.0083414078477622, -1.2641832733580958 ]
  - [  -0.0004068219072277,  0.0000003961297511, -1.2664218589169600 ]
  - [   0.0003858141952959, -0.0017466167211086, -1.2698471483217828 ]
  - [   0.0000009885559152,  0.0000000000000016, -1.2664247386239031 ]
  - [  -0.0000054755855862,  0.0000000000000013, -1.2664232683216272 ]
  - [   0.0000044870296704,  0.0000000000000006, -1.2664224824416568 ]
  - [   0.0070107242168533, -0.0083414078477645, -1.2641832733580958 ]
  - [  -0.0004068219072285, -0.0000003961297539, -1.2664218589169609 ]
  - [   0.0003858141952961,  0.0017466167211067, -1.2698471483217824 ]
  - [  -0.0000167355604412, -0.0000168620585285, -1.2664710213364452 ]
  - [  -0.0000001298766612, -0.0000000726009184, -1.2664234353432167 ]
  - [   0.0000168654371016, -0.0000167321818647, -1.2664421819618394 ]
  - [  -0.0000000759794946,  0.0000000000000019, -1.2664235075332306 ]
  - [   0.0000000000000016,  0.0000000000000017, -1.2664232797799446 ]
  - [   0.0000000759794932,  0.0000000000000005, -1.2664233673899847 ]
  - [  -0.0000167355604409,  0.0000168620585256, -1.2664710213364474 ]
  - [  -0.0000001298766631,  0.0000000726009170, -1.2664234353432158 ]
  - [   0.0000168654371034,  0.0000167321818634, -1.2664421819618386 ]
  - [  -0.0006244162008103, -0.0004566352987515, -1.2658055942409718 ]
  - [  -0.0000274479006615,  0.0000003755270957, -1.2664232999602945 ]
  - [   0.0012283761516761, -0.0013993542638094, -1.2642014393689367 ]
  - [   0.0000004126253685, -0.0000000000000000, -1.2664228739320760 ]
  - [  -0.0000003675343092,  0.0000000000000004, -1.2664232811888954 ]
  - [  -0.0000000450910608,  0.0000000000000014, -1.2664233004743690 ]
  - [  -0.0006244162008105,  0.0004566352987519, -1.2658055942409723 ]
  - [  -0.0000274479006595, -0.0000003755270963, -1.2664232999602940 ]
  - [   0.0012283761516736,  0.0013993542638083, -1.2642014393689363 ]
